<?xml version="1.0" encoding="UTF-8"?>

<!-- generated on 2023-04-21 08:26:52 by Eclipse SUMO sumo Version v1_16_0+1095-e5f7288d143
<configuration xmlns:xsi="http://www.w3.org/2001/XMLSchema-instance" xsi:noNamespaceSchemaLocation="http://sumo.dlr.de/xsd/sumoConfiguration.xsd">

    <input>
        <net-file value="/Users/alexarmero/Desktop/DISSERTATION/A-Multi-Agent-Simulation-/sumo/tools/2023-04-21-08-26-48/osm.net.xml.gz"/>
        <route-files value="/Users/alexarmero/Desktop/DISSERTATION/A-Multi-Agent-Simulation-/sumo/tools/2023-04-21-08-26-48/trips.trips.xml"/>
        <additional-files value="/Users/alexarmero/Desktop/DISSERTATION/A-Multi-Agent-Simulation-/sumo/tools/2023-04-21-08-26-48/osm_stops.add.xml"/>
    </input>

    <output>
        <vehroute-output value="/Users/alexarmero/Desktop/DISSERTATION/A-Multi-Agent-Simulation-/sumo/tools/2023-04-21-08-26-48/vehroutes.xml"/>
        <stop-output value="/Users/alexarmero/Desktop/DISSERTATION/A-Multi-Agent-Simulation-/sumo/tools/2023-04-21-08-26-48/stopinfos.xml"/>
    </output>

    <time>
        <begin value="0.0"/>
    </time>

    <processing>
        <ignore-route-errors value="true"/>
    </processing>

    <routing>
        <device.rerouting.adaptation-interval value="0"/>
    </routing>

    <report>
        <aggregate-warnings value="5"/>
        <error-log value="/Users/alexarmero/Desktop/DISSERTATION/A-Multi-Agent-Simulation-/sumo/tools/2023-04-21-08-26-48/trips.trips.xml.errorlog"/>
        <no-step-log value="true"/>
    </report>

</configuration>
-->

<routes xmlns:xsi="http://www.w3.org/2001/XMLSchema-instance" xsi:noNamespaceSchemaLocation="http://sumo.dlr.de/xsd/routes_file.xsd">
    <vehicle id="4_bus_38:1" type="pt_bus" depart="27.00" departLane="0" arrival="297.00">
        <route edges="-1065127950 -1094661232#2 -542471105#5 -542471105#2 -542471105#0 542471106 -211487026#1 210447794#0 210447794#3 1135565524#0 1135565525#0 1135566097 1135566098#0 211486426#0 -669229893#0 669229894#0"/>
        <stop busStop="-5364578868" duration="30.00"/>
    </vehicle>

    <vehicle id="0_bus_14:0" type="pt_bus" depart="3.00" departLane="0" arrival="332.00">
        <route edges="211557607#0 232725809 669229893#0 232725808 1135566870 211557609#0 211557609#1 211557609#2 1135566096#0 1135566095#0 1135566095#1 1135565527#0 1135565526#0 1135565526#1 4376571#0 43486254#0 211487026#0 4376580 542471105#0 542471105#1 542471105#3 1094661232#0 1094661232#3"/>
        <stop busStop="469780509" duration="30.00"/>
        <stop busStop="4638404786" duration="30.00"/>
        <stop busStop="5364578870" duration="30.00"/>
    </vehicle>

    <vehicle id="6_bus_9:1" type="pt_bus" depart="55.00" departLane="0" arrival="361.00">
        <route edges="183056157#0 4356102 1018924455 1018924456 462641800#0 35085536#0 1135565524#0 1135565525#0 1135566097 1135566098#0 211486426#0 -669229893#0 669229894#0"/>
        <stop busStop="4641072776" duration="30.00"/>
        <stop busStop="4638404785" duration="30.00"/>
        <stop busStop="6266808744" duration="30.00"/>
    </vehicle>

    <vehicle id="2_bus_19:1" type="pt_bus" depart="15.00" departLane="0" arrival="379.00">
        <route edges="211557607#0 232725809 669229893#0 232725808 1135566870 211557609#0 211557609#1 211557609#2 1135566096#0 1135566095#0 1135566095#1 1135565527#0 1135565526#0 1135565526#1 4376571#0 43486254#0 211487026#0 4376580 542471105#0 542471105#1 542471105#3 1094661232#0 1094661232#3"/>
        <stop busStop="469780509" duration="30.00"/>
        <stop busStop="4638404786" duration="30.00"/>
        <stop busStop="5364578870" duration="30.00"/>
    </vehicle>

    <vehicle id="3_bus_38:0" type="pt_bus" depart="21.00" departLane="0" arrival="379.00">
        <route edges="211557607#0 232725809 669229893#0 232725808 1135566870 211557609#0 211557609#1 211557609#2 1135566096#0 1135566095#0 1135566095#1 1135565527#0 1135565526#0 1135565526#1 4376571#0 43486254#0 211487026#0 4376580 542471105#0 542471105#1 542471105#3 1094661232#0 1094661232#3"/>
        <stop busStop="469780509" duration="30.00"/>
    </vehicle>

    <vehicle id="1_bus_19:0" type="pt_bus" depart="15.00" departLane="0" arrival="400.00">
        <route edges="-1065127950 -1094661232#2 -542471105#5 -542471105#2 -542471105#0 542471106 -211487026#1 210447794#0 210447794#3 1135565524#0 1135565525#0 1135566097 1135566098#0 211486426#0 -669229893#0 669229894#0"/>
        <stop busStop="-5364578868" duration="30.00"/>
        <stop busStop="-5364578869" duration="30.00"/>
        <stop busStop="4638404785" duration="30.00"/>
        <stop busStop="6266808744" duration="30.00"/>
    </vehicle>

    <vehicle id="7_bus_159:0" type="pt_bus" depart="61.00" departLane="0" arrival="425.00">
        <route edges="183056157#0 4356102 1018924455 1018924456 462641800#0 35085536#0 193420534 436943364#0 1018945233 1018943769 436938229 1018951434 1018951432 1067635382 1018951427#0 1018951427#2 1067635381 1018951424 1018951419 436938220#0 436938220#2 1018951418 1018951421#0 1024601863#0 1018951416 1018951413"/>
        <stop busStop="4641072776" duration="30.00"/>
        <stop busStop="4347844151" duration="30.00"/>
        <stop busStop="4631979549" duration="30.00"/>
    </vehicle>

    <vehicle id="8_bus_159:1" type="pt_bus" depart="93.00" departLane="0" arrival="437.00">
        <route edges="1018951411 1018951414 1018951415#0 1018951422#0 1018951417 38748498#0 38748498#2 1018951420 1064360339#0 1018951428#0 1018951429 1018951431 1018951433 399696957 1018945234#0 1018945232 43118736#0 215065448#0 4369048#0 35085535#0 35085535#1 436945579#0 436945579#1 53876136 1065112862 210500025#0 507776882"/>
        <stop busStop="4631979550" duration="30.00"/>
        <stop busStop="4638405889" duration="30.00"/>
        <stop busStop="4641072779" duration="30.00"/>
    </vehicle>

    <vehicle id="10_bus_6:1" type="pt_bus" depart="131.00" departLane="0" arrival="439.00">
        <route edges="183056157#0 4356102 1018924455 1018924456 462641800#0 35085536#0 1135565524#0 1135565525#0 1135566097 1135566098#0 211486426#0 -669229893#0 669229894#0"/>
        <stop busStop="4641072776" duration="30.00"/>
        <stop busStop="4638404785" duration="30.00"/>
        <stop busStop="6266808744" duration="30.00"/>
    </vehicle>

    <vehicle id="12_bus_453:1" type="pt_bus" depart="137.00" departLane="0" arrival="482.00">
        <route edges="183056157#0 4356102 1018924455 1018924456 462641800#0 35085536#0 193420534 436943364#0 1018945233 1018943769 436938229 1018951434 1018951432 1067635382 1018951427#0 1018951427#2 1067635381 1018951424 1018951419 436938220#0 436938220#2 1018951418 1018951421#0 1024601863#0 1018951416 1018951413"/>
        <stop busStop="4641072775" duration="30.00"/>
        <stop busStop="4347844151" duration="30.00"/>
        <stop busStop="4631979549" duration="30.00"/>
    </vehicle>

    <vehicle id="5_bus_9:0" type="pt_bus" depart="52.00" departLane="0" arrival="491.00">
        <route edges="211557607#0 232725809 669229893#0 232725808 1135566870 211557609#0 211557609#1 211557609#2 1135566096#0 1135566095#0 1135566095#1 1135565527#0 1135565526#0 1135565526#1 4376571#0 215065448#0 4369048#0 35085535#0 35085535#1 436945579#0 436945579#1 53876136 1065112862 210500025#0 507776882"/>
        <stop busStop="469780509" duration="30.00"/>
        <stop busStop="4638404786" duration="30.00"/>
        <stop busStop="4641072778" duration="30.00"/>
    </vehicle>

    <vehicle id="11_bus_453:0" type="pt_bus" depart="132.00" departLane="0" arrival="518.00">
        <route edges="1018951411 1018951414 1018951415#0 1018951422#0 1018951417 38748498#0 38748498#2 1018951420 1064360339#0 1018951428#0 1018951429 1018951431 1018951433 399696957 1018945234#0 1018945232 43118736#0 215065448#0 4369048#0 35085535#0 35085535#1 436945579#0 436945579#1 53876136 1065112862 210500025#0 507776882"/>
        <stop busStop="4631979550" duration="30.00"/>
        <stop busStop="4638405889" duration="30.00"/>
        <stop busStop="4641072779" duration="30.00"/>
    </vehicle>

    <vehicle id="14_bus_14:1" type="pt_bus" depart="201.00" departLane="0" arrival="544.00">
        <route edges="-1065127950 -1094661232#2 -542471105#5 -542471105#2 -542471105#0 542471106 -211487026#1 210447794#0 210447794#3 1135565524#0 1135565525#0 1135566097 1135566098#0 211486426#0 -669229893#0 669229894#0"/>
        <stop busStop="-5364578868" duration="30.00"/>
        <stop busStop="-5364578869" duration="30.00"/>
        <stop busStop="4638404785" duration="30.00"/>
        <stop busStop="6266808744" duration="30.00"/>
    </vehicle>

    <vehicle id="9_bus_6:0" type="pt_bus" depart="119.00" departLane="0" arrival="545.00">
        <route edges="211557607#0 232725809 669229893#0 232725808 1135566870 211557609#0 211557609#1 211557609#2 1135566096#0 1135566095#0 1135566095#1 1135565527#0 1135565526#0 1135565526#1 4376571#0 215065448#0 4369048#0 35085535#0 35085535#1 436945579#0 436945579#1 53876136 1065112862 210500025#0 507776882"/>
        <stop busStop="469780509" duration="30.00"/>
        <stop busStop="4638404786" duration="30.00"/>
        <stop busStop="4641072778" duration="30.00"/>
    </vehicle>

    <vehicle id="15_bus_12:0" type="pt_bus" depart="204.00" departLane="0" arrival="548.00">
        <route edges="1018951411 1018951414 1018951415#0 1018951422#0 1018951417 38748498#0 38748498#2 1018951420 1064360339#0 1018951428#0 1018951429 1018951431 1018951433 399696957 1018945234#0 1018945232 43118736#0 215065448#0 4369048#0 35085535#0 35085535#1 436945579#0 436945579#1 53876136 1065112862 210500025#0 507776882"/>
        <stop busStop="4631979550" duration="30.00"/>
        <stop busStop="4638405889" duration="30.00"/>
        <stop busStop="4641072779" duration="30.00"/>
    </vehicle>

    <vehicle id="16_bus_12:1" type="pt_bus" depart="227.00" departLane="0" arrival="575.00">
        <route edges="183056157#0 4356102 1018924455 1018924456 462641800#0 35085536#0 193420534 436943364#0 1018945233 1018943769 436938229 1018951434 1018951432 1067635382 1018951427#0 1018951427#2 1067635381 1018951424 1018951419 436938220#0 436938220#2 1018951418 1018951421#0 1024601863#0 1018951416 1018951413"/>
        <stop busStop="4641072775" duration="30.00"/>
        <stop busStop="4347844151" duration="30.00"/>
        <stop busStop="4631979551" duration="30.00"/>
    </vehicle>

    <vehicle id="13_bus_139:0" type="pt_bus" depart="165.00" departLane="0" arrival="576.00">
        <route edges="1018951411 1018951414 1018951415#0 1018951422#0 1018951417 38748498#0 38748498#2 1018951420 1064360339#0 1018951428#0 1018951429 1018951431 1018951433 399696957 1018945234#0 1018945232 43118736#0 215065448#0 4369048#0 35085535#0 35085535#1 436945579#0 436945579#1 53876136 1065112862 210500025#0 507776882"/>
        <stop busStop="4631979552" duration="30.00"/>
        <stop busStop="4638405889" duration="30.00"/>
        <stop busStop="4641072778" duration="30.00"/>
    </vehicle>

    <vehicle id="17_bus_94:0" type="pt_bus" depart="253.00" departLane="0" arrival="614.00">
        <route edges="2263976 462641798 1018924455 1018924456 462641800#0 35085536#0 193420534 436943364#0 1018945233 1018943769 436938229 1018951434 1018951432 1067635382 1018951427#0 1018951427#2 1067635381 1018951424 1018951419 436938220#0 436938220#2 1018951418 1018951421#0 1024601863#0 1018951416 1018951413"/>
        <stop busStop="4641072775" duration="30.00"/>
        <stop busStop="4347844151" duration="30.00"/>
        <stop busStop="4631979549" duration="30.00"/>
    </vehicle>

    <vehicle id="19_bus_88:1" type="pt_bus" depart="321.00" departLane="0" arrival="655.00">
        <route edges="1018951411 1018951414 1018951415#0 1018951422#0 1018951417 38748498#0 38748498#2 1018951420 1064360339#0 1018951428#0 1018951429 1018951431 1018951433 399696957 1018945234#0 1018945232 43118736#0 215065448#0 4369048#0 35085535#0 35085535#1 436945579#0 436945579#1 53876136 1065112862 210500025#0 507776882"/>
        <stop busStop="4631979550" duration="30.00"/>
        <stop busStop="4638405889" duration="30.00"/>
        <stop busStop="4641072779" duration="30.00"/>
    </vehicle>

    <vehicle id="18_bus_88:0" type="pt_bus" depart="303.00" departLane="0" arrival="659.00">
        <route edges="183056157#0 4356102 1018924455 1018924456 462641800#0 35085536#0 193420534 436943364#0 1018945233 1018943769 436938229 1018951434 1018951432 1067635382 1018951427#0 1018951427#2 1067635381 1018951424 1018951419 436938220#0 436938220#2 1018951418 1018951421#0 1024601863#0 1018951416 1018951413"/>
        <stop busStop="4641072775" duration="30.00"/>
        <stop busStop="4347844151" duration="30.00"/>
        <stop busStop="4631979549" duration="30.00"/>
    </vehicle>

    <vehicle id="21_bus_N113:1" type="pt_bus" depart="331.00" departLane="0" arrival="693.00">
        <route edges="183056157#0 4356102 1018924455 1018924456 462641800#0 35085536#0 193420534 436943364#0 1018945233 1018943769 436938229 1018951434 1018951432 1067635382 1018951427#0 1018951427#2 1067635381 1018951424 1018951419 436938220#0 436938220#2 1018951418 1018951421#0 1024601863#0 1018951416 1018951413"/>
        <stop busStop="4641072776" duration="30.00"/>
        <stop busStop="4347844151" duration="30.00"/>
        <stop busStop="4631979551" duration="30.00"/>
    </vehicle>

    <vehicle id="22_bus_139:1" type="pt_bus" depart="346.00" departLane="0" arrival="727.00">
        <route edges="183056157#0 4356102 1018924455 1018924456 462641800#0 35085536#0 193420534 436943364#0 1018945233 1018943769 436938229 1018951434 1018951432 1067635382 1018951427#0 1018951427#2 1067635381 1018951424 1018951419 436938220#0 436938220#2 1018951418 1018951421#0 1024601863#0 1018951416 1018951413"/>
        <stop busStop="4641072776" duration="30.00"/>
        <stop busStop="4347844151" duration="30.00"/>
        <stop busStop="4631979551" duration="30.00"/>
    </vehicle>

    <vehicle id="20_bus_N113:0" type="pt_bus" depart="327.00" departLane="0" arrival="740.00">
        <route edges="1018951411 1018951414 1018951415#0 1018951422#0 1018951417 38748498#0 38748498#2 1018951420 1064360339#0 1018951428#0 1018951429 1018951431 1018951433 399696957 1018945234#0 1018945232 43118736#0 215065448#0 4369048#0 35085535#0 35085535#1 436945579#0 436945579#1 53876136 1065112862 210500025#0 507776882"/>
        <stop busStop="4631979552" duration="30.00"/>
        <stop busStop="4638405889" duration="30.00"/>
        <stop busStop="4641072778" duration="30.00"/>
    </vehicle>

    <vehicle id="30_bus_N97:1" type="pt_bus" depart="422.00" departLane="0" arrival="743.00">
        <route edges="183056157#0 4356102 1018924455 1018924456 462641800#0 35085536#0 1135565524#0 1135565525#0 1135566097 1135566098#0 211486426#0 -669229893#0 669229894#0"/>
        <stop busStop="4641072776" duration="30.00"/>
        <stop busStop="4638404785" duration="30.00"/>
        <stop busStop="6266808744" duration="30.00"/>
    </vehicle>

    <vehicle id="34_bus_N38:1" type="pt_bus" depart="484.00" departLane="0" arrival="759.00">
        <route edges="-1065127950 -1094661232#2 -542471105#5 -542471105#2 -542471105#0 542471106 -211487026#1 210447794#0 210447794#3 1135565524#0 1135565525#0 1135566097 1135566098#0 211486426#0 -669229893#0 669229894#0"/>
        <stop busStop="-5364578868" duration="30.00"/>
    </vehicle>

    <vehicle id="26_bus_N3:1" type="pt_bus" depart="383.00" departLane="0" arrival="770.00">
        <route edges="1018951411 1018951414 1018951415#0 1018951422#0 1018951417 38748498#0 38748498#2 1018951420 1064360339#0 1018951428#0 1018951429 1018951431 1018951433 399696957 1018945234#0 1018945232 43118736#0 215065448#0 4369048#0 35085535#0 35085535#1 436945579#0 436945579#1 53876136 1065112862 210500025#0 507776882"/>
        <stop busStop="4631979550" duration="30.00"/>
        <stop busStop="4638405889" duration="30.00"/>
        <stop busStop="4641072779" duration="30.00"/>
    </vehicle>

    <vehicle id="27_bus_N109:0" type="pt_bus" depart="389.00" departLane="0" arrival="780.00">
        <route edges="183056157#0 4356102 1018924455 1018924456 462641800#0 35085536#0 193420534 436943364#0 1018945233 1018943769 436938229 1018951434 1018951432 1067635382 1018951427#0 1018951427#2 1067635381 1018951424 1018951419 436938220#0 436938220#2 1018951418 1018951421#0 1024601863#0 1018951416 1018951413"/>
        <stop busStop="4641072776" duration="30.00"/>
        <stop busStop="4347844151" duration="30.00"/>
    </vehicle>

    <vehicle id="24_bus_N15:1" type="pt_bus" depart="362.00" departLane="0" arrival="783.00">
        <route edges="183056157#0 4356102 1018924455 1018924456 462641800#0 35085536#0 193420534 436943364#0 1018945233 1018943769 436938229 1018951434 1018951432 1067635382 1018951427#0 1018951427#2 1067635381 1018951424 1018951419 436938220#0 436938220#2 1018951418 1018951421#0 1024601863#0 1018951416 1018951413"/>
        <stop busStop="4641072775" duration="30.00"/>
        <stop busStop="4347844151" duration="30.00"/>
        <stop busStop="4631979551" duration="30.00"/>
    </vehicle>

    <vehicle id="33_bus_N38:0" type="pt_bus" depart="483.00" departLane="0" arrival="784.00">
        <route edges="211557607#0 232725809 669229893#0 232725808 1135566870 211557609#0 211557609#1 211557609#2 1135566096#0 1135566095#0 1135566095#1 1135565527#0 1135565526#0 1135565526#1 4376571#0 43486254#0 211487026#0 4376580 542471105#0 542471105#1 542471105#3 1094661232#0 1094661232#3"/>
        <stop busStop="469780509" duration="30.00"/>
    </vehicle>

    <vehicle id="23_bus_N15:0" type="pt_bus" depart="353.00" departLane="0" arrival="798.00">
        <route edges="1018951411 1018951414 1018951415#0 1018951422#0 1018951417 38748498#0 38748498#2 1018951420 1064360339#0 1018951428#0 1018951429 1018951431 1018951433 399696957 1018945234#0 1018945232 43118736#0 215065448#0 4369048#0 35085535#0 35085535#1 436945579#0 436945579#1 53876136 1065112862 210500025#0 507776882"/>
        <stop busStop="4631979552" duration="30.00"/>
        <stop busStop="4638405889" duration="30.00"/>
        <stop busStop="4641072778" duration="30.00"/>
    </vehicle>

    <vehicle id="32_bus_N9:1" type="pt_bus" depart="441.00" departLane="0" arrival="799.00">
        <route edges="183056157#0 4356102 1018924455 1018924456 462641800#0 35085536#0 1135565524#0 1135565525#0 1135566097 1135566098#0 211486426#0 -669229893#0 669229894#0"/>
        <stop busStop="4641072776" duration="30.00"/>
        <stop busStop="4638404785" duration="30.00"/>
        <stop busStop="6266808744" duration="30.00"/>
    </vehicle>

    <vehicle id="29_bus_N97:0" type="pt_bus" depart="418.00" departLane="0" arrival="826.00">
        <route edges="211557607#0 232725809 669229893#0 232725808 1135566870 211557609#0 211557609#1 211557609#2 1135566096#0 1135566095#0 1135566095#1 1135565527#0 1135565526#0 1135565526#1 4376571#0 215065448#0 4369048#0 35085535#0 35085535#1 436945579#0 436945579#1 53876136 1065112862 210500025#0 507776882"/>
        <stop busStop="469780509" duration="30.00"/>
        <stop busStop="4638404786" duration="30.00"/>
        <stop busStop="4641072779" duration="30.00"/>
    </vehicle>

    <vehicle id="25_bus_N3:0" type="pt_bus" depart="371.00" departLane="0" arrival="852.00">
        <route edges="183056157#0 4356102 1018924455 1018924456 462641800#0 35085536#0 193420534 436943364#0 1018945233 1018943769 436938229 1018951434 1018951432 1067635382 1018951427#0 1018951427#2 1067635381 1018951424 1018951419 436938220#0 436938220#2 1018951418 1018951421#0 1024601863#0 1018951416 1018951413"/>
        <stop busStop="4641072775" duration="30.00"/>
        <stop busStop="4347844151" duration="30.00"/>
        <stop busStop="4631979551" duration="30.00"/>
    </vehicle>

    <vehicle id="31_bus_N9:0" type="pt_bus" depart="437.00" departLane="0" arrival="853.00">
        <route edges="211557607#0 232725809 669229893#0 232725808 1135566870 211557609#0 211557609#1 211557609#2 1135566096#0 1135566095#0 1135566095#1 1135565527#0 1135565526#0 1135565526#1 4376571#0 215065448#0 4369048#0 35085535#0 35085535#1 436945579#0 436945579#1 53876136 1065112862 210500025#0 507776882"/>
        <stop busStop="469780509" duration="30.00"/>
        <stop busStop="4638404786" duration="30.00"/>
        <stop busStop="4641072778" duration="30.00"/>
    </vehicle>

    <vehicle id="37_bus_N136:0" type="pt_bus" depart="508.00" departLane="0" arrival="855.00">
        <route edges="183056157#0 4356102 1018924455 1018924456 462641800#0 35085536#0 193420534 436943364#0 1018945233 1018943769 436938229 1018951434 1018951432 1067635382 1018951427#0 1018951427#2 1067635381 1018951424 1018951419 436938220#0 436938220#2 1018951418 1018951421#0 1024601863#0 1018951416 1018951413"/>
        <stop busStop="4641072776" duration="30.00"/>
        <stop busStop="4347844151" duration="30.00"/>
    </vehicle>

    <vehicle id="28_bus_N109:1" type="pt_bus" depart="406.00" departLane="0" arrival="856.00">
        <route edges="1018951411 1018951414 1018951415#0 1018951422#0 1018951417 38748498#0 38748498#2 1018951420 1064360339#0 1018951428#0 1018951429 1018951431 1018951433 399696957 1018945234#0 1018945232 43118736#0 215065448#0 4369048#0 35085535#0 35085535#1 436945579#0 436945579#1 53876136 1065112862 210500025#0 507776882"/>
        <stop busStop="4631979550" duration="30.00"/>
        <stop busStop="4638405889" duration="30.00"/>
        <stop busStop="4641072779" duration="30.00"/>
    </vehicle>

    <vehicle id="41_bus_94:1" type="pt_bus" depart="583.00" departLane="0" arrival="889.00">
        <route edges="1018951411 1018951414 1018951415#0 1018951422#0 1018951417 38748498#0 38748498#2 1018951420 1064360339#0 1018951428#0 1018951429 1018951431 1018951433 399696957 1018945234#0 1018945232 43118736#0 215065448#0 4369048#0 35085535#0 35085535#1 436945579#0 436945579#1 2263976"/>
        <stop busStop="4631979550" duration="30.00"/>
        <stop busStop="4638405889" duration="30.00"/>
    </vehicle>

    <vehicle id="35_bus_N19:0" type="pt_bus" depart="490.00" departLane="0" arrival="898.00">
        <route edges="-1065127950 -1094661232#2 -542471105#5 -542471105#2 -542471105#0 542471106 -211487026#1 210447794#0 210447794#3 1135565524#0 1135565525#0 1135566097 1135566098#0 211486426#0 -669229893#0 669229894#0"/>
        <stop busStop="-5364578868" duration="30.00"/>
        <stop busStop="-5364578869" duration="30.00"/>
        <stop busStop="4638404785" duration="30.00"/>
        <stop busStop="6266808744" duration="30.00"/>
    </vehicle>

    <vehicle id="36_bus_N19:1" type="pt_bus" depart="497.00" departLane="0" arrival="907.00">
        <route edges="211557607#0 232725809 669229893#0 232725808 1135566870 211557609#0 211557609#1 211557609#2 1135566096#0 1135566095#0 1135566095#1 1135565527#0 1135565526#0 1135565526#1 4376571#0 43486254#0 211487026#0 4376580 542471105#0 542471105#1 542471105#3 1094661232#0 1094661232#3"/>
        <stop busStop="469780509" duration="30.00"/>
        <stop busStop="4638404786" duration="30.00"/>
        <stop busStop="5364578870" duration="30.00"/>
    </vehicle>

    <vehicle id="38_bus_N136:1" type="pt_bus" depart="517.00" departLane="0" arrival="910.00">
        <route edges="1018951411 1018951414 1018951415#0 1018951422#0 1018951417 38748498#0 38748498#2 1018951420 1064360339#0 1018951428#0 1018951429 1018951431 1018951433 399696957 1018945234#0 1018945232 43118736#0 215065448#0 4369048#0 35085535#0 35085535#1 436945579#0 436945579#1 53876136 1065112862 210500025#0 507776882"/>
        <stop busStop="4631979550" duration="30.00"/>
        <stop busStop="4638405889" duration="30.00"/>
        <stop busStop="4641072779" duration="30.00"/>
    </vehicle>

    <vehicle id="39_bus_N18:0" type="pt_bus" depart="535.00" departLane="0" arrival="937.00">
        <route edges="1018951411 1018951414 1018951415#0 1018951422#0 1018951417 38748498#0 38748498#2 1018951420 1064360339#0 1018951428#0 1018951429 1018951431 1018951433 399696957 1018945234#0 1018945232 43118736#0 215065448#0 4369048#0 35085535#0 35085535#1 436945579#0 436945579#1 53876136 1065112862 210500025#0 507776882"/>
        <stop busStop="4631979552" duration="30.00"/>
        <stop busStop="4638405889" duration="30.00"/>
        <stop busStop="4641072779" duration="30.00"/>
    </vehicle>

    <vehicle id="40_bus_N18:1" type="pt_bus" depart="574.00" departLane="0" arrival="942.00">
        <route edges="183056157#0 4356102 1018924455 1018924456 462641800#0 35085536#0 193420534 436943364#0 1018945233 1018943769 436938229 1018951434 1018951432 1067635382 1018951427#0 1018951427#2 1067635381 1018951424 1018951419 436938220#0 436938220#2 1018951418 1018951421#0 1024601863#0 1018951416 1018951413"/>
        <stop busStop="4641072776" duration="30.00"/>
        <stop busStop="4347844151" duration="30.00"/>
        <stop busStop="4631979549" duration="30.00"/>
    </vehicle>

</routes>
